ITEM: TIMESTEP
0
ITEM: NUMBER OF ATOMS
3
ITEM: BOX BOUNDS pp pp pp
-1.5138099999999999e-01 1.8002518999999999e+01
-2.4489200000000000e-01 1.7909008000000000e+01
-2.0478199999999999e-01 1.7949117999999999e+01
ITEM: ATOMS x y z type q id
0.93699 -0.05546 -0.03862 2 0.0 3
1.90487 -0.09814 -0.05690 1 0.0 1
0.65814 -0.90854 -0.40394 1 0.0 2
