3 properties=species:S:1:pos:R:3:forces:R:3:charge:R:1 energy=-76.0
H    1.90487   -0.09814   -0.05690   0.001  0.002  -0.003   0.33
H    0.65814   -0.90854   -0.40394  -0.002 -0.001   0.001   0.33
O    0.93699   -0.05546   -0.03862   0.000 -0.001   0.002  -0.66
