ITEM: TIMESTEP
0
ITEM: NUMBER OF ATOMS
288
ITEM: BOX BOUNDS xy xz yz pp pp pp
0.0000000000000000e+00 1.9472065000000001e+01 0.0000000000000000e+00
0.0000000000000000e+00 1.1695321000000000e+01 0.0000000000000000e+00
0.0000000000000000e+00 1.3120991000000000e+01 0.0000000000000000e+00
ITEM: ATOMS id type x y z 
1 4 11.4008 11.5047 6.74573 
2 4 10.1702 10.5057 5.19516 
3 4 7.76517 1.66869 9.48987 
4 4 6.06486 2.40477 8.26273 
5 4 6.35377 4.95552 6.03068 
6 4 7.10795 5.77346 4.07596 
7 4 13.6773 2.60112 6.4045 
8 4 13.2706 2.88919 4.23064 
9 4 9.0752 6.09463 6.94602 
10 4 9.79011 4.79807 8.62975 
11 4 9.21151 11.2306 2.88174 
12 4 11.0106 0.764922 2.51201 
13 3 9.18866 0.686676 6.47048 
14 3 10.327 11.4305 6.09151 
15 3 8.39129 2.74378 7.42591 
16 3 7.34112 2.27157 8.44849 
17 3 8.27095 3.82933 5.04478 
18 3 7.23359 4.99472 5.07998 
19 3 11.4163 2.16918 5.55242 
20 3 12.8417 2.71529 5.4341 
21 3 10.4638 4.21088 6.37336 
22 3 9.76363 5.12209 7.38111 
23 3 9.40453 1.72702 4.051 
24 3 9.90679 0.579799 3.15711 
25 2 9.60452 1.93992 7.41137 
26 2 7.85078 2.62207 5.79669 
27 2 10.8032 2.73432 6.8437 
28 2 10.4667 2.74534 4.42734 
29 2 9.84031 3.99714 4.98417 
30 2 8.4982 1.35972 5.32327 
31 1 9.80939 1.63124 8.46548 
32 1 6.73461 2.53382 5.83621 
33 1 11.6517 2.86533 7.55939 
34 1 11.0585 3.06497 3.51907 
35 1 10.0743 4.90474 4.31478 
36 1 7.7943 0.625098 4.98368 
37 4 17.9365 0.127427 0.652409 
38 4 18.8941 0.90251 11.8803 
39 4 2.36237 9.77476 2.68075 
40 4 3.90837 9.09372 1.23551 
41 4 3.59746 6.70745 12.0603 
42 4 2.25343 5.56988 10.7632 
43 4 15.6427 8.9804 13.0261 
44 4 15.9592 8.74414 10.8168 
45 4 1.32887 5.6836 0.247409 
46 4 19.2887 6.21645 1.76431 
47 4 0.166137 0.575611 9.53266 
48 4 17.8321 11.0784 9.32084 
49 3 0.574881 10.8041 12.992 
50 3 18.8401 0.061108 12.8789 
51 3 1.64357 8.71824 0.542509 
52 3 2.6839 9.28818 1.50891 
53 3 1.57947 7.89519 11.2583 
54 3 2.52309 6.66762 11.3744 
55 3 17.8783 9.36042 12.1287 
56 3 16.4217 8.93501 12.0001 
57 3 19.0107 7.26808 12.6975 
58 3 0.275432 6.36999 0.582109 
59 3 0.233378 9.96304 10.4727 
60 3 19.0193 11.1793 9.80826 
61 2 0.3003 9.45574 0.682509 
62 2 1.95314 9.06173 12.1079 
63 2 18.574 8.70765 0.213409 
64 2 18.791 8.86769 10.9115 
65 2 0.080459 7.57556 11.3245 
66 2 1.16013 10.324 11.7005 
67 1 0.169491 9.66474 1.79571 
68 1 3.07584 9.13934 11.9359 
69 1 17.8945 8.43075 1.09541 
70 1 18.1108 8.57214 9.99462 
71 1 19.3217 6.73935 10.5567 
72 1 1.84937 11.1433 11.3628 
73 4 6.40292 11.217 6.71506 
74 4 5.01235 1.05393 5.88141 
75 4 2.32911 9.55997 9.27721 
76 4 0.739379 8.75664 7.99485 
77 4 1.16595 7.57927 3.5787 
78 4 2.99187 6.65804 2.7131 
79 4 8.48513 8.33768 6.32742 
80 4 8.01597 8.27302 4.13786 
81 4 3.23491 5.74323 7.29979 
82 4 4.45021 6.71444 8.86635 
83 4 4.28644 0.152467 3.29175 
84 4 6.25254 10.7404 3.00466 
85 3 4.04379 10.594 6.50278 
86 3 5.22397 11.5227 6.24347 
87 3 3.06275 8.56139 7.23052 
88 3 2.00375 9.00799 8.17478 
89 3 3.0645 7.43211 5.07162 
90 3 2.40567 7.30737 3.67242 
91 3 6.22522 8.9727 5.63329 
92 3 7.65267 8.46441 5.36361 
93 3 5.13814 7.07858 6.579 
94 3 4.27083 6.40912 7.63728 
95 3 4.37808 9.58054 4.09423 
96 3 5.0448 10.8047 3.45904 
97 2 4.34314 9.30078 7.42462 
98 2 2.65839 8.75632 5.77729 
99 2 5.54229 8.43542 7.02575 
100 2 5.31462 8.41302 4.55369 
101 2 4.56665 7.1967 5.15483 
102 2 3.41534 10.0082 5.24476 
103 1 4.35482 9.68861 8.51234 
104 1 1.57263 8.85291 5.64904 
105 1 6.36587 8.41522 7.83549 
106 1 5.87258 7.98465 3.64814 
107 1 4.76867 6.25182 4.5689 
108 1 2.70911 10.8073 4.85368 
109 4 3.03996 0.111213 0.440909 
110 4 4.42826 10.5775 12.3026 
111 4 6.89198 2.1081 3.03568 
112 4 8.61096 2.75973 1.82241 
113 4 8.55007 3.92334 10.4147 
114 4 7.02756 5.38236 9.74054 
115 4 1.02586 3.05772 0.028709 
116 4 1.29862 3.14728 10.8759 
117 4 6.43426 5.90368 0.652609 
118 4 5.24511 4.89622 2.25921 
119 4 5.15738 11.5377 9.69771 
120 4 3.23352 1.01357 9.77826 
121 3 5.25842 1.01908 0.029109 
122 3 4.15379 0.007541 12.8955 
123 3 6.36212 2.9581 0.846409 
124 3 7.3325 2.58522 1.93201 
125 3 6.55836 4.1507 11.8318 
126 3 7.40735 4.48136 10.5934 
127 3 3.24798 2.70006 12.2725 
128 3 1.75753 3.11513 12.0755 
129 3 4.43496 4.64795 0.023809 
130 3 5.46248 5.18364 1.00631 
131 3 5.19459 2.06713 10.7073 
132 3 4.47231 0.894438 10.0187 
133 2 5.01481 2.35079 0.968209 
134 2 6.84623 2.74687 12.5339 
135 2 3.88267 3.20536 0.411009 
136 2 4.29234 3.1235 11.1674 
137 2 5.07701 4.33933 11.7537 
138 2 6.04599 1.56513 11.9923 
139 1 4.69822 1.95117 1.93181 
140 1 7.9597 2.60688 12.4715 
141 1 3.06124 3.4059 1.19781 
142 1 3.66791 3.36848 10.2368 
143 1 4.85276 5.30589 11.139 
144 1 6.74922 0.712016 11.6586 
145 4 1.44151 0.586488 6.68379 
146 4 0.125334 11.3659 5.19986 
147 4 17.661 2.80606 9.6012 
148 4 15.8803 2.96916 8.22455 
149 4 15.7002 4.42702 3.79816 
150 4 17.0696 6.09949 3.21795 
151 4 2.84724 4.10567 3.64947 
152 4 3.74298 3.43957 5.61886 
153 4 18.0597 6.37682 7.20948 
154 4 0.436407 6.16383 8.4783 
155 4 18.4798 0.43808 2.99741 
156 4 0.938386 1.44533 2.8031 
157 3 18.7053 1.65224 6.36347 
158 3 0.310474 0.590543 6.05779 
159 3 18.0044 3.63743 7.36189 
160 3 17.1039 3.1079 8.47561 
161 3 17.6263 4.90029 5.23472 
162 3 16.7745 5.11493 3.97708 
163 3 1.37768 3.12883 5.36714 
164 3 2.73904 3.65401 4.85787 
165 3 0.534173 5.26238 6.21394 
166 3 19.282 6.00464 7.3589 
167 3 18.651 2.67737 3.9743 
168 3 19.208 1.46513 3.25773 
169 2 19.2781 2.94213 7.25796 
170 2 17.3926 3.6224 5.96088 
171 2 0.91893 3.81929 6.62724 
172 2 0.272652 3.67792 4.3336 
173 2 19.2004 4.95251 4.98236 
174 2 17.9511 2.29216 5.2678 
175 1 0.180985 2.54317 8.27766 
176 1 16.2776 3.64473 6.11093 
177 1 1.77639 3.99891 7.38344 
178 1 0.805969 3.91768 3.3352 
179 1 19.3289 5.81991 4.29917 
180 1 17.1136 1.5726 4.923 
181 4 7.97228 11.142 0.191109 
182 4 9.42935 0.32471 11.8464 
183 4 11.3555 9.39753 3.00574 
184 4 13.1743 8.70521 1.88001 
185 4 13.5184 6.88432 10.9294 
186 4 11.9253 5.72532 9.94365 
187 4 5.86309 8.16785 12.5764 
188 4 6.41896 8.22272 10.3733 
189 4 10.608 5.19533 0.687909 
190 4 9.34834 6.06972 2.25781 
191 4 10.7933 11.4125 9.67764 
192 4 9.10019 10.23 8.90158 
193 3 10.2197 10.1876 0.101709 
194 3 9.13918 11.1687 12.7492 
195 3 11.0081 8.20273 0.946509 
196 3 11.9123 8.81784 1.99831 
197 3 11.2902 6.98751 11.9486 
198 3 12.2655 6.60558 10.8105 
199 3 8.10957 8.80678 12.0034 
200 3 6.7062 8.32869 11.6183 
201 3 8.90664 6.7327 13.0175 
202 3 9.68079 6.04661 1.00961 
203 3 10.3354 9.25391 10.7653 
204 3 10.0255 10.369 9.77455 
205 2 9.6741 8.93417 0.896309 
206 2 11.6338 8.28727 12.687 
207 2 8.53259 8.14766 0.185509 
208 2 9.25501 8.20654 11.0402 
209 2 9.80713 6.90467 11.6331 
210 2 11.0374 9.61824 12.0566 
211 1 9.37217 9.33141 1.92941 
212 1 12.8124 8.35379 12.8357 
213 1 7.72027 8.03011 0.996209 
214 1 8.75884 8.03675 10.0089 
215 1 9.65227 6.06614 10.9123 
216 1 11.7581 10.3691 11.6479 
217 4 16.6346 11.0805 6.66819 
218 4 15.357 0.800526 5.55889 
219 4 12.6427 9.30907 9.27417 
220 4 10.9671 8.50318 8.13082 
221 4 10.7534 6.75843 5.31182 
222 4 12.1206 5.44374 4.16559 
223 4 18.5648 8.24015 5.29721 
224 4 17.7519 8.62117 3.18644 
225 4 13.5939 5.22751 6.54238 
226 4 14.8698 6.16613 8.07682 
227 4 13.7947 0.450345 3.22472 
228 4 15.6371 11.088 2.46701 
229 3 14.2358 10.5383 6.47053 
230 3 15.4746 11.352 6.14067 
231 3 13.2011 8.4385 7.03426 
232 3 12.2033 8.873 8.17091 
233 3 12.9221 7.67295 4.6223 
234 3 11.9234 6.52096 4.80824 
235 3 16.2609 8.99964 5.03513 
236 3 17.6298 8.52366 4.4772 
237 3 15.2136 6.95502 5.78044 
238 3 14.5282 6.07949 6.84577 
239 3 14.1045 9.8316 3.92565 
240 3 14.5374 11.1043 3.1323 
241 2 14.5748 9.12248 7.0567 
242 2 12.6935 8.82738 5.64669 
243 2 15.6498 8.31727 6.31739 
244 2 15.1643 8.67988 4.02318 
245 2 14.4213 7.41764 4.52503 
246 2 13.3982 10.1537 5.23095 
247 1 14.8885 9.24952 8.17114 
248 1 11.6158 9.03957 5.70506 
249 1 16.5465 7.98561 6.95591 
250 1 15.5904 8.58612 2.98458 
251 1 14.4857 6.58631 3.78539 
252 1 12.5909 10.9974 4.99743 
253 4 12.7615 0.093808 0.246809 
254 4 13.9959 10.6174 11.9377 
255 4 16.3865 2.28926 2.66829 
256 4 18.0944 2.79755 1.34291 
257 4 18.1652 4.77408 11.8358 
258 4 16.8591 6.09414 10.5661 
259 4 10.4544 2.88498 12.2318 
260 4 11.1121 2.83313 10.0291 
261 4 15.5876 5.84186 13.0042 
262 4 13.8483 5.68043 1.25851 
263 4 15.1665 11.0744 9.66661 
264 4 13.2681 0.348619 9.07802 
265 3 14.9253 0.983354 12.9491 
266 3 13.8535 11.6278 12.7002 
267 3 15.841 3.09986 0.428909 
268 3 16.8285 2.76329 1.53821 
269 3 16.0142 3.82673 11.1741 
270 3 17.0582 5.00003 11.2076 
271 3 12.7618 2.27655 11.6533 
272 3 11.3634 2.7953 11.302 
273 3 13.7064 4.448 12.3027 
274 3 14.4203 5.39129 0.160209 
275 3 14.9215 1.62896 10.4022 
276 3 14.4149 0.413294 9.67294 
277 2 14.4286 2.27231 0.492709 
278 2 16.3569 2.70872 12.1857 
279 2 13.3277 3.00325 12.9004 
280 2 13.8136 2.65465 10.6141 
281 2 14.4824 3.99948 11.1032 
282 2 15.7211 1.39644 11.7365 
283 1 14.1071 2.0842 1.54631 
284 1 17.4818 2.68595 12.2938 
285 1 12.4915 3.2268 0.481809 
286 1 13.3355 2.90324 9.62492 
287 1 14.5257 4.78674 10.2527 
288 1 16.4392 0.504378 11.5935 
ITEM: TIMESTEP
10
ITEM: NUMBER OF ATOMS
288
ITEM: BOX BOUNDS xy xz yz pp pp pp
0.0000000000000000e+00 1.9472065000000001e+01 0.0000000000000000e+00
0.0000000000000000e+00 1.1695321000000000e+01 0.0000000000000000e+00
0.0000000000000000e+00 1.3120991000000000e+01 0.0000000000000000e+00
ITEM: ATOMS id type x y z 
1 4 11.4081 11.5182 6.73894 
2 4 10.1648 10.5116 5.20687 
3 4 7.77847 1.67414 9.48554 
4 4 6.07046 2.3905 8.27563 
5 4 6.34105 4.96437 6.03688 
6 4 7.11981 5.79066 4.07784 
7 4 13.6613 2.60378 6.4154 
8 4 13.2756 2.8954 4.23802 
9 4 9.08404 6.08522 6.93146 
10 4 9.80857 4.80417 8.63076 
11 4 9.19814 11.2305 2.87856 
12 4 10.9932 0.772026 2.51892 
13 3 9.20802 0.676974 6.48005 
14 3 10.3295 11.4481 6.07295 
15 3 8.38697 2.73631 7.42247 
16 3 7.33625 2.2842 8.45624 
17 3 8.27544 3.8404 5.04701 
18 3 7.22984 4.99575 5.08675 
19 3 11.4197 2.15251 5.56238 
20 3 12.8585 2.70872 5.44251 
21 3 10.4723 4.20596 6.38691 
22 3 9.75049 5.13827 7.39911 
23 3 9.40063 1.73534 4.0641 
24 3 9.91484 0.576283 3.16392 
25 2 9.59687 1.94773 7.39978 
26 2 7.84845 2.63573 5.79964 
27 2 10.7878 2.72377 6.86031 
28 2 10.449 2.74938 4.43815 
29 2 9.82434 4.01372 4.97772 
30 2 8.5024 1.37459 5.30278 
31 1 9.7758 1.6819 8.45813 
32 1 6.69302 2.50273 5.88281 
33 1 11.7073 2.80768 7.53651 
34 1 11.097 3.06761 3.4712 
35 1 10.0846 4.95507 4.33662 
36 1 7.76634 0.600258 4.9842 
37 4 17.9458 0.112357 0.637621 
38 4 18.8997 0.91976 11.8665 
39 4 2.35371 9.75798 2.66828 
40 4 3.89972 9.08515 1.22117 
41 4 3.60809 6.70891 12.0719 
42 4 2.24918 5.56607 10.7665 
43 4 15.6467 8.9939 13.0111 
44 4 15.9708 8.75701 10.822 
45 4 1.31116 5.69154 0.231078 
46 4 19.282 6.20555 1.77913 
47 4 0.169383 0.567674 9.53657 
48 4 17.8472 11.0615 9.31576 
49 3 0.556588 10.8214 13.0099 
50 3 18.8459 0.048298 12.8622 
51 3 1.64176 8.7045 0.550223 
52 3 2.68993 9.30756 1.52015 
53 3 1.59429 7.9071 11.2459 
54 3 2.53639 6.67804 11.3867 
55 3 17.8962 9.36229 12.1222 
56 3 16.4168 8.92524 11.9967 
57 3 18.9991 7.26641 12.6864 
58 3 0.262152 6.35431 0.575143 
59 3 0.24741 9.97272 10.4824 
60 3 19.0369 11.1686 9.81661 
61 2 0.288309 9.45127 0.701237 
62 2 1.96824 9.07756 12.1139 
63 2 18.5845 8.7094 0.195827 
64 2 18.7734 8.87909 10.8939 
65 2 0.0672386 7.564 11.3163 
66 2 1.16046 10.3432 11.7 
67 1 0.142562 9.59764 1.73293 
68 1 3.06846 9.16691 11.9315 
69 1 17.8473 8.43676 1.06114 
70 1 18.1649 8.53801 10.0432 
71 1 19.2973 6.80503 10.5343 
72 1 1.79578 11.1203 11.3607 
73 4 6.41577 11.2287 6.69988 
74 4 5.00069 1.06025 5.87771 
75 4 2.33806 9.56683 9.27567 
76 4 0.735784 8.77142 7.98027 
77 4 1.17054 7.58466 3.58302 
78 4 2.97829 6.64786 2.72986 
79 4 8.47 8.33064 6.31489 
80 4 8.00036 8.27848 4.13852 
81 4 3.23143 5.75464 7.29022 
82 4 4.45001 6.72906 8.87096 
83 4 4.3052 0.164168 3.27543 
84 4 6.26747 10.732 3.02171 
85 3 4.03123 10.6027 6.51421 
86 3 5.22722 11.5137 6.25193 
87 3 3.06989 8.55847 7.21741 
88 3 1.99731 9.01723 8.19271 
89 3 3.06383 7.42684 5.06691 
90 3 2.40583 7.32258 3.65629 
91 3 6.2331 8.98594 5.64597 
92 3 7.66181 8.4566 5.36316 
93 3 5.15225 7.09558 6.56279 
94 3 4.25594 6.40506 7.64501 
95 3 4.38114 9.56864 4.08497 
96 3 5.06286 10.7953 3.4434 
97 2 4.34393 9.29729 7.43828 
98 2 2.64883 8.74045 5.79183 
99 2 5.52465 8.41808 7.04395 
100 2 5.29685 8.43229 4.54753 
101 2 4.572 7.18641 5.1515 
102 2 3.40917 10.019 5.2447 
103 1 4.35449 9.642 8.47469 
104 1 1.5499 8.81443 5.60195 
105 1 6.42767 8.36378 7.89706 
106 1 5.91042 7.95277 3.72176 
107 1 4.73041 6.22783 4.58392 
108 1 2.66279 10.7628 4.78705 
109 4 3.04728 0.109327 0.423349 
110 4 4.44291 10.5854 12.3127 
111 4 6.90706 2.12411 3.0396 
112 4 8.61767 2.77009 1.82378 
113 4 8.53815 3.93887 10.4055 
114 4 7.04466 5.3669 9.73 
115 4 1.02673 3.06665 0.0351255 
116 4 1.29529 3.145 10.8715 
117 4 6.44761 5.9072 0.657146 
118 4 5.24158 4.87956 2.25892 
119 4 5.16656 11.5553 9.6971 
120 4 3.22928 1.01647 9.77817 
121 3 5.24344 1.02294 0.0489615 
122 3 4.16318 -0.00539137 12.892 
123 3 6.37269 2.94276 0.863203 
124 3 7.32255 2.56734 1.93266 
125 3 6.57553 4.13357 11.8391 
126 3 7.40411 4.46646 10.5917 
127 3 3.23474 2.7073 12.2859 
128 3 1.74817 3.1319 12.0851 
129 3 4.45439 4.65895 0.0102434 
130 3 5.45495 5.19953 1.00645 
131 3 5.2039 2.0601 10.7103 
132 3 4.45613 0.892727 10.0363 
133 2 4.99936 2.34933 0.983325 
134 2 6.84906 2.75098 12.5414 
135 2 3.87787 3.20824 0.406167 
136 2 4.29443 3.11876 11.1638 
137 2 5.07041 4.34853 11.7684 
138 2 6.04937 1.54731 11.9889 
139 1 4.69592 1.96871 1.9385 
140 1 7.93794 2.64205 12.4994 
141 1 3.07125 3.45182 1.1843 
142 1 3.6307 3.32574 10.2962 
143 1 4.81264 5.33782 11.1393 
144 1 6.78653 0.7146 11.6652 
145 4 1.43998 0.575348 6.68481 
146 4 0.113282 11.3592 5.19395 
147 4 17.6789 2.80544 9.59801 
148 4 15.872 2.96518 8.22744 
149 4 15.6996 4.41691 3.80557 
150 4 17.0738 6.09698 3.22341 
151 4 2.85722 4.09595 3.64422 
152 4 3.7298 3.44614 5.60481 
153 4 18.0431 6.36811 7.19545 
154 4 0.451944 6.15776 8.46893 
155 4 18.4823 0.445224 2.9815 
156 4 0.934466 1.43042 2.81929 
157 3 18.7107 1.65447 6.35425 
158 3 0.321542 0.5968 6.06098 
159 3 18.0045 3.64919 7.36846 
160 3 17.0873 3.1015 8.46537 
161 3 17.6238 4.88908 5.21684 
162 3 16.7625 5.09798 3.96982 
163 3 1.37399 3.11704 5.3841 
164 3 2.75743 3.66696 4.85889 
165 3 0.540197 5.25317 6.22731 
166 3 19.2777 5.98966 7.35435 
167 3 18.6433 2.68861 3.96754 
168 3 19.2215 1.47816 3.27008 
169 2 19.2822 2.9243 7.27702 
170 2 17.3924 3.62775 5.94224 
171 2 0.925153 3.82077 6.61814 
172 2 0.255022 3.66285 4.34197 
173 2 19.2158 4.94437 4.99225 
174 2 17.9333 2.28689 5.2593 
175 1 0.157872 2.57358 8.27387 
176 1 16.3227 3.65963 6.11006 
177 1 1.79961 3.94021 7.35971 
178 1 0.738341 3.95895 3.37245 
179 1 19.3645 5.74793 4.28287 
180 1 17.1429 1.63893 4.98103 
181 4 7.96023 11.1516 0.17822 
182 4 9.43149 0.330878 11.8354 
183 4 11.3518 9.39435 2.99956 
184 4 13.1826 8.71669 1.88804 
185 4 13.5173 6.89953 10.944 
186 4 11.928 5.72365 9.93801 
187 4 5.85545 8.15428 12.572 
188 4 6.40473 8.23718 10.3599 
189 4 10.6051 5.18997 0.696109 
190 4 9.34091 6.06143 2.24382 
191 4 10.7773 11.4019 9.67126 
192 4 9.09189 10.2368 8.88916 
193 3 10.2281 10.1993 0.110874 
194 3 9.13955 11.1647 12.7502 
195 3 11.012 8.19721 0.936552 
196 3 11.906 8.81524 1.98452 
197 3 11.2997 6.97045 11.9386 
198 3 12.2517 6.6063 10.8002 
199 3 8.10401 8.79123 12.0106 
200 3 6.7202 8.344 11.6304 
201 3 8.91315 6.71911 13.0204 
202 3 9.66306 6.03844 0.998272 
203 3 10.3288 9.23579 10.753 
204 3 10.0158 10.3602 9.77822 
205 2 9.66504 8.93402 0.895024 
206 2 11.6533 8.2891 12.6959 
207 2 8.52278 8.13162 0.186317 
208 2 9.24897 8.21133 11.0468 
209 2 9.81792 6.89949 11.6522 
210 2 11.0331 9.60664 12.0552 
211 1 9.37853 9.34256 1.9872 
212 1 12.7647 8.38191 12.78 
213 1 7.73399 8.03335 1.05154 
214 1 8.77781 8.09863 10.0366 
215 1 9.68907 6.1145 10.9777 
216 1 11.7091 10.3397 11.6685 
217 4 16.638 11.0755 6.66848 
218 4 15.3419 0.788137 5.56005 
219 4 12.6596 9.30563 9.28488 
220 4 10.9673 8.51569 8.13007 
221 4 10.7399 6.74205 5.29838 
222 4 12.1205 5.44901 4.16378 
223 4 18.5768 8.24942 5.30576 
224 4 17.7616 8.61643 3.17727 
225 4 13.5869 5.21887 6.53033 
226 4 14.8813 6.17729 8.0811 
227 4 13.8118 0.452165 3.22978 
228 4 15.6386 11.08 2.45648 
229 3 14.2399 10.5569 6.48817 
230 3 15.4638 11.3437 6.12322 
231 3 13.1896 8.44822 7.04621 
232 3 12.2071 8.86575 8.15468 
233 3 12.9373 7.66111 4.62644 
234 3 11.9143 6.52696 4.81689 
235 3 16.2714 8.98323 5.0403 
236 3 17.6445 8.51736 4.49601 
237 3 15.2219 6.96708 5.78353 
238 3 14.5257 6.08149 6.86319 
239 3 14.0992 9.82756 3.94548 
240 3 14.5365 11.0991 3.13354 
241 2 14.5781 9.11219 7.07006 
242 2 12.6903 8.83573 5.65917 
243 2 15.6312 8.30801 6.31045 
244 2 15.1693 8.6849 4.00549 
245 2 14.4144 7.42658 4.5066 
246 2 13.3877 10.1668 5.2315 
247 1 14.8685 9.22003 8.18225 
248 1 11.6816 9.02566 5.68093 
249 1 16.6002 8.03148 6.92384 
250 1 15.5817 8.52321 2.9891 
251 1 14.4446 6.55334 3.76186 
252 1 12.6537 10.9631 4.98236 
253 4 12.7782 0.0856761 0.245598 
254 4 13.9804 10.6235 11.9273 
255 4 16.3959 2.29611 2.6534 
256 4 18.0881 2.8038 1.3421 
257 4 18.1684 4.79053 11.8506 
258 4 16.8464 6.10008 10.5521 
259 4 10.4445 2.87938 12.2383 
260 4 11.1231 2.84699 10.0238 
261 4 15.5972 5.82894 13.0211 
262 4 13.8307 5.67811 1.25692 
263 4 15.1545 11.0926 9.65723 
264 4 13.2573 0.339796 9.08343 
265 3 14.922 0.972384 12.9417 
266 3 13.8457 11.6175 12.6996 
267 3 15.8472 3.11479 0.419454 
268 3 16.8163 2.76349 1.54017 
269 3 16.0183 3.83057 11.1739 
270 3 17.0622 4.99262 11.189 
271 3 12.7563 2.27815 11.6722 
272 3 11.3755 2.77941 11.2961 
273 3 13.7237 4.46506 12.2977 
274 3 14.4122 5.37382 0.180233 
275 3 14.9357 1.62521 10.4071 
276 3 14.4218 0.407012 9.68308 
277 2 14.4427 2.28349 0.482154 
278 2 16.3642 2.71067 12.1988 
279 2 13.3117 3.0089 12.8891 
280 2 13.8244 2.65499 10.6175 
281 2 14.4718 3.98795 11.0838 
282 2 15.7111 1.39091 11.7436 
283 1 14.147 2.07794 1.53092 
284 1 17.5144 2.73298 12.3223 
285 1 12.5582 3.15771 0.43934 
286 1 13.3724 2.89092 9.60662 
287 1 14.5683 4.77658 10.1999 
288 1 16.418 0.575722 11.6004 
ITEM: TIMESTEP
20
ITEM: NUMBER OF ATOMS
288
ITEM: BOX BOUNDS xy xz yz pp pp pp
0.0000000000000000e+00 1.9472065000000001e+01 0.0000000000000000e+00
0.0000000000000000e+00 1.1695321000000000e+01 0.0000000000000000e+00
0.0000000000000000e+00 1.3120991000000000e+01 0.0000000000000000e+00
ITEM: ATOMS id type x y z 
1 4 11.4141 11.532 6.73197 
2 4 10.159 10.5192 5.21976 
3 4 7.79184 1.68028 9.47988 
4 4 6.07795 2.37673 8.28797 
5 4 6.33028 4.97264 6.04169 
6 4 7.13243 5.80622 4.08145 
7 4 13.6437 2.60659 6.42579 
8 4 13.2794 2.90157 4.24698 
9 4 9.09359 6.07464 6.91727 
10 4 9.82745 4.81074 8.62976 
11 4 9.18516 11.2326 2.87652 
12 4 10.9748 0.779627 2.52711 
13 3 9.22818 0.668508 6.48957 
14 3 10.3327 11.4648 6.05439 
15 3 8.38135 2.72876 7.41749 
16 3 7.33036 2.29523 8.46492 
17 3 8.27983 3.85115 5.04977 
18 3 7.22443 4.99736 5.09316 
19 3 11.4219 2.13739 5.57252 
20 3 12.8773 2.70155 5.44928 
21 3 10.4804 4.20003 6.40047 
22 3 9.73647 5.15371 7.41781 
23 3 9.39709 1.74327 4.0783 
24 3 9.92317 0.571642 3.16901 
25 2 9.58859 1.95404 7.38887 
26 2 7.84522 2.6507 5.80419 
27 2 10.7748 2.71519 6.87592 
28 2 10.4328 2.75237 4.44717 
29 2 9.80679 4.03252 4.97236 
30 2 8.50787 1.38745 5.28079 
31 1 9.74522 1.72641 8.44676 
32 1 6.66932 2.47598 5.92762 
33 1 11.7477 2.74711 7.51282 
34 1 11.1233 3.05981 3.44393 
35 1 10.0873 4.98883 4.36835 
36 1 7.7416 0.582089 4.98095 
37 4 17.9563 0.0965565 0.621524 
38 4 18.9054 0.935231 11.8547 
39 4 2.34445 9.74093 2.65388 
40 4 3.88961 9.07671 1.20696 
41 4 3.6171 6.7119 12.0828 
42 4 2.24476 5.5647 10.7704 
43 4 15.6525 9.00713 12.9955 
44 4 15.9836 8.76994 10.8284 
45 4 1.29166 5.70082 0.214626 
46 4 19.2752 6.19542 1.79167 
47 4 0.173033 0.557686 9.54135 
48 4 17.8638 11.0436 9.31202 
49 3 0.537028 10.8374 13.028 
50 3 18.8513 0.0370634 12.845 
51 3 1.63921 8.69232 0.556765 
52 3 2.69735 9.32684 1.53229 
53 3 1.60851 7.91839 11.2342 
54 3 2.55047 6.68628 11.3986 
55 3 17.9146 9.36272 12.1158 
56 3 16.41 8.91566 11.9926 
57 3 18.9877 7.26549 12.6762 
58 3 0.250018 6.33757 0.56952 
59 3 0.260651 9.98264 10.4935 
60 3 19.0532 11.1596 9.82278 
61 2 0.278505 9.44833 0.719157 
62 2 1.98378 9.09152 12.1199 
63 2 18.5928 8.70829 0.177443 
64 2 18.7556 8.89104 10.8765 
65 2 0.0554473 7.55265 11.3085 
66 2 1.15952 10.3621 11.6994 
67 1 0.114472 9.53994 1.68586 
68 1 3.05304 9.1976 11.9348 
69 1 17.8101 8.44964 1.01336 
70 1 18.216 8.51117 10.0928 
71 1 19.2779 6.87102 10.5205 
72 1 1.74819 11.1048 11.3524 
73 4 6.42675 11.2403 6.68423 
74 4 4.98879 1.06394 5.87434 
75 4 2.3481 9.57331 9.27253 
76 4 0.734429 8.78642 7.96522 
77 4 1.1764 7.59028 3.58804 
78 4 2.96471 6.63885 2.74812 
79 4 8.4534 8.32414 6.30176 
80 4 7.9839 8.28444 4.14052 
81 4 3.22955 5.76638 7.28051 
82 4 4.4502 6.74329 8.87375 
83 4 4.32505 0.173639 3.25963 
84 4 6.28059 10.7231 3.03964 
85 3 4.01981 10.6103 6.52521 
86 3 5.23172 11.5068 6.26124 
87 3 3.07624 8.55658 7.20411 
88 3 1.98857 9.02663 8.21172 
89 3 3.06315 7.42257 5.06246 
90 3 2.40532 7.33603 3.63923 
91 3 6.24037 8.99769 5.65865 
92 3 7.67243 8.44848 5.36225 
93 3 5.16521 7.11228 6.54729 
94 3 4.2397 6.40148 7.65366 
95 3 4.3846 9.55682 4.07697 
96 3 5.0811 10.7875 3.42698 
97 2 4.34342 9.29522 7.45132 
98 2 2.63963 8.72386 5.8056 
99 2 5.51053 8.40081 7.06162 
100 2 5.27999 8.45216 4.54109 
101 2 4.57594 7.17597 5.14828 
102 2 3.40326 10.0303 5.24393 
103 1 4.35873 9.59528 8.43808 
104 1 1.53336 8.77826 5.56021 
105 1 6.46658 8.31464 7.93797 
106 1 5.94247 7.93396 3.7991 
107 1 4.69459 6.21293 4.60389 
108 1 2.62836 10.7097 4.72592 
109 4 3.05632 0.108032 0.404875 
110 4 4.45795 10.5955 12.3231 
111 4 6.92129 2.14048 3.04215 
112 4 8.62207 2.78054 1.82415 
113 4 8.52484 3.95439 10.3978 
114 4 7.06122 5.35037 9.72133 
115 4 1.02917 3.07582 0.0398371 
116 4 1.29315 3.14282 10.8692 
117 4 6.45938 5.90991 0.66174 
118 4 5.23794 4.86335 2.25642 
119 4 5.17493 11.5749 9.69722 
120 4 3.2263 1.01966 9.7785 
121 3 5.22823 1.02779 0.0683133 
122 3 4.17178 -0.0192172 12.8896 
123 3 6.38344 2.92647 0.879765 
124 3 7.31491 2.5492 1.93469 
125 3 6.59203 4.11541 11.8462 
126 3 7.40178 4.45257 10.5881 
127 3 3.22267 2.71515 12.2994 
128 3 1.73716 3.14761 12.0943 
129 3 4.47459 4.66838 -0.00305717 
130 3 5.44797 5.21519 1.00828 
131 3 5.21336 2.05224 10.715 
132 3 4.44003 0.889492 10.0531 
133 2 4.9848 2.34588 0.996964 
134 2 6.85175 2.75648 12.5493 
135 2 3.87132 3.21349 0.401718 
136 2 4.29507 3.11368 11.16 
137 2 5.06426 4.35988 11.7818 
138 2 6.05242 1.52808 11.9846 
139 1 4.69605 1.98649 1.95434 
140 1 7.91567 2.67306 12.5277 
141 1 3.09058 3.49136 1.16384 
142 1 3.59803 3.28805 10.3596 
143 1 4.78189 5.34834 11.1484 
144 1 6.81044 0.729464 11.6722 
145 4 1.43688 0.565049 6.68568 
146 4 0.100779 11.3539 5.18933 
147 4 17.6961 2.80532 9.59239 
148 4 15.8647 2.96158 8.23027 
149 4 15.7005 4.40751 3.8137 
150 4 17.0779 6.09299 3.23017 
151 4 2.86664 4.08552 3.64071 
152 4 3.71549 3.45298 5.5904 
153 4 18.0288 6.35908 7.18163 
154 4 0.466684 6.15113 8.45738 
155 4 18.4852 0.45458 2.96684 
156 4 0.929761 1.41678 2.83643 
157 3 18.718 1.65729 6.34589 
158 3 0.333762 0.60178 6.06325 
159 3 18.0045 3.6606 7.37457 
160 3 17.0711 3.09424 8.45655 
161 3 17.623 4.87709 5.19848 
162 3 16.7497 5.08185 3.96152 
163 3 1.36941 3.10682 5.39967 
164 3 2.77705 3.67984 4.85903 
165 3 0.545276 5.24267 6.24083 
166 3 19.2721 5.97513 7.35135 
167 3 18.6366 2.69981 3.96212 
168 3 19.2355 1.4881 3.28068 
169 2 19.2853 2.90533 7.29569 
170 2 17.3915 3.63291 5.92432 
171 2 0.933307 3.82243 6.61015 
172 2 0.238347 3.64702 4.34988 
173 2 19.2293 4.93773 5.00185 
174 2 17.9164 2.28217 5.25064 
175 1 0.132271 2.60178 8.26465 
176 1 16.3632 3.66468 6.10774 
177 1 1.81204 3.87763 7.32753 
178 1 0.67027 3.99608 3.41707 
179 1 19.3981 5.68014 4.26467 
180 1 17.1623 1.69792 5.03523 
181 4 7.95018 11.1609 0.164906 
182 4 9.43353 0.335511 11.8259 
183 4 11.3485 9.39014 2.99164 
184 4 13.1889 8.72784 1.89532 
185 4 13.514 6.91507 10.9589 
186 4 11.9302 5.72327 9.93355 
187 4 5.84978 8.14128 12.5661 
188 4 6.39164 8.25211 10.3486 
189 4 10.6008 5.18596 0.703796 
190 4 9.33298 6.05414 2.228 
191 4 10.7607 11.3894 9.66597 
192 4 9.08427 10.2429 8.8786 
193 3 10.2351 10.2103 0.119178 
194 3 9.13865 11.1616 12.7506 
195 3 11.0159 8.1922 0.926684 
196 3 11.9008 8.81358 1.97238 
197 3 11.309 6.9548 11.9284 
198 3 12.24 6.60556 10.7896 
199 3 8.09936 8.77397 12.0179 
200 3 6.73179 8.35854 11.6417 
201 3 8.92111 6.70581 13.0222 
202 3 9.64691 6.02813 0.988345 
203 3 10.3214 9.21728 10.7422 
204 3 10.0059 10.3533 9.77983 
205 2 9.65749 8.93582 0.894563 
206 2 11.6726 8.2909 12.7043 
207 2 8.51193 8.11536 0.189318 
208 2 9.24215 8.21781 11.052 
209 2 9.8295 6.89538 11.673 
210 2 11.0278 9.59508 12.0528 
211 1 9.3891 9.34367 2.02306 
212 1 12.7107 8.40836 12.7229 
213 1 7.75379 8.04207 1.08795 
214 1 8.79708 8.15522 10.0712 
215 1 9.72153 6.14683 11.0346 
216 1 11.6687 10.3156 11.6932 
217 4 16.6392 11.0701 6.66814 
218 4 15.3262 0.774006 5.56153 
219 4 12.677 9.30164 9.29355 
220 4 10.9694 8.52835 8.12815 
221 4 10.7286 6.7264 5.28453 
222 4 12.121 5.45578 4.16263 
223 4 18.5872 8.25914 5.31334 
224 4 17.7711 8.61171 3.17073 
225 4 13.5819 5.21212 6.51817 
226 4 14.893 6.18889 8.08361 
227 4 13.8295 0.452027 3.23488 
228 4 15.6383 11.0712 2.44717 
229 3 14.2447 10.5743 6.50486 
230 3 15.4553 11.3367 6.10671 
231 3 13.1785 8.45882 7.05732 
232 3 12.2096 8.85845 8.14102 
233 3 12.9524 7.65048 4.63243 
234 3 11.9042 6.53204 4.8244 
235 3 16.2807 8.96598 5.04495 
236 3 17.66 8.51123 4.5135 
237 3 15.2289 6.97982 5.78664 
238 3 14.5217 6.08236 6.88163 
239 3 14.0951 9.82416 3.96568 
240 3 14.5367 11.0953 3.13441 
241 2 14.5802 9.10315 7.08559 
242 2 12.6888 8.84251 5.67163 
243 2 15.6165 8.29728 6.30344 
244 2 15.1736 8.6912 3.9882 
245 2 14.4062 7.43267 4.4876 
246 2 13.3784 10.1795 5.23109 
247 1 14.8466 9.19091 8.17837 
248 1 11.7206 9.01221 5.65757 
249 1 16.6366 8.08733 6.89024 
250 1 15.5711 8.46239 2.99894 
251 1 14.407 6.5318 3.74616 
252 1 12.7233 10.9252 4.96923 
253 4 12.7961 0.0777734 0.24413 
254 4 13.9653 10.631 11.9177 
255 4 16.4049 2.30365 2.63679 
256 4 18.0798 2.8107 1.34077 
257 4 18.1694 4.80686 11.8643 
258 4 16.8337 6.10375 10.5389 
259 4 10.4372 2.87363 12.243 
260 4 11.1349 2.86068 10.0207 
261 4 15.6047 5.81541 13.0381 
262 4 13.8131 5.67511 1.25405 
263 4 15.1426 11.112 9.64811 
264 4 13.2483 0.332394 9.09001 
265 3 14.9178 0.962043 12.9341 
266 3 13.8367 11.607 12.699 
267 3 15.8521 3.12839 0.410141 
268 3 16.8055 2.76216 1.54344 
269 3 16.0225 3.83352 11.1753 
270 3 17.0673 4.98637 11.1707 
271 3 12.7517 2.28097 11.6912 
272 3 11.3849 2.7635 11.2897 
273 3 13.7412 4.4805 12.2932 
274 3 14.4059 5.35699 0.200826 
275 3 14.9489 1.62156 10.4129 
276 3 14.4273 0.399027 9.69228 
277 2 14.4588 2.29363 0.472073 
278 2 16.373 2.7148 12.2115 
279 2 13.296 3.01581 12.8757 
280 2 13.8354 2.65529 10.6201 
281 2 14.464 3.97924 11.0629 
282 2 15.7004 1.38458 11.75 
283 1 14.1906 2.07281 1.51306 
284 1 17.5321 2.77478 12.3451 
285 1 12.6019 3.09294 0.416392 
286 1 13.4107 2.87239 9.59836 
287 1 14.5969 4.75467 10.1644 
288 1 16.3991 0.647863 11.6007 
ITEM: TIMESTEP
30
ITEM: NUMBER OF ATOMS
288
ITEM: BOX BOUNDS xy xz yz pp pp pp
0.0000000000000000e+00 1.9472065000000001e+01 0.0000000000000000e+00
0.0000000000000000e+00 1.1695321000000000e+01 0.0000000000000000e+00
0.0000000000000000e+00 1.3120991000000000e+01 0.0000000000000000e+00
ITEM: ATOMS id type x y z 
1 4 11.4188 11.5461 6.7247 
2 4 10.1526 10.5282 5.23354 
3 4 7.80527 1.68708 9.47303 
4 4 6.08696 2.36358 8.29967 
5 4 6.32155 4.98026 6.045 
6 4 7.14571 5.81999 4.08695 
7 4 13.6248 2.60953 6.43597 
8 4 13.2823 2.90767 4.25748 
9 4 9.10349 6.06335 6.90352 
10 4 9.84657 4.8179 8.62711 
11 4 9.17273 11.2369 2.87568 
12 4 10.9557 0.787727 2.53634 
13 3 9.24876 0.661448 6.49866 
14 3 10.3368 11.4808 6.03642 
15 3 8.37439 2.7214 7.4108 
16 3 7.32389 2.30445 8.47445 
17 3 8.2838 3.86164 5.05313 
18 3 7.21743 4.9998 5.09905 
19 3 11.4227 2.12397 5.58261 
20 3 12.8975 2.6939 5.45418 
21 3 10.4879 4.19311 6.41397 
22 3 9.72221 5.16777 7.43687 
23 3 9.39389 1.75085 4.09356 
24 3 9.93108 0.56575 3.1725 
25 2 9.57957 1.95874 7.37884 
26 2 7.84089 2.6664 5.8104 
27 2 10.7648 2.70868 6.89017 
28 2 10.4186 2.7545 4.45388 
29 2 9.78809 4.05306 4.96846 
30 2 8.51399 1.3979 5.25758 
31 1 9.71947 1.76186 8.43536 
32 1 6.66825 2.45634 5.96742 
33 1 11.7683 2.68583 7.48948 
34 1 11.1325 3.04129 3.4432 
35 1 10.0818 5.00534 4.40801 
36 1 7.72657 0.576838 4.97605 
37 4 17.968 0.0800983 0.604181 
38 4 18.9112 0.948769 11.8449 
39 4 2.3346 9.72399 2.63826 
40 4 3.87827 9.06855 1.19302 
41 4 3.62453 6.7164 12.093 
42 4 2.24039 5.56596 10.775 
43 4 15.6598 9.02003 12.9794 
44 4 15.9972 8.78279 10.8355 
45 4 1.27055 5.71123 0.198073 
46 4 19.2686 6.18603 1.80169 
47 4 0.177224 0.545804 9.54698 
48 4 17.882 11.0245 9.30965 
49 3 0.516535 10.8519 13.046 
50 3 18.8561 0.0276149 12.8272 
51 3 1.63588 8.68191 0.562012 
52 3 2.706 9.34541 1.54446 
53 3 1.62208 7.929 11.2233 
54 3 2.56502 6.69218 11.4099 
55 3 17.9336 9.36179 12.1091 
56 3 16.4017 8.90657 11.988 
57 3 18.9765 7.26531 12.6668 
58 3 0.238787 6.32006 0.565525 
59 3 0.27275 9.99263 10.5059 
60 3 19.068 11.1525 9.82669 
61 2 0.271405 9.44642 0.733611 
62 2 1.99868 9.10359 12.126 
63 2 18.5987 8.70432 0.158297 
64 2 18.7394 8.9039 10.8616 
65 2 0.0454247 7.5427 11.302 
66 2 1.15634 10.3793 11.6995 
67 1 0.0811796 9.49632 1.68411 
68 1 3.03761 9.23113 11.9451 
69 1 17.7852 8.46864 0.953014 
70 1 18.248 8.48657 10.121 
71 1 19.2623 6.92588 10.5077 
72 1 1.71917 11.1128 11.333 
73 4 6.43586 11.2517 6.66824 
74 4 4.97675 1.06485 5.87141 
75 4 2.35912 9.57951 9.26806 
76 4 0.735316 8.80166 7.95 
77 4 1.18324 7.59625 3.59366 
78 4 2.95134 6.63086 2.76741 